LAMMPS Description

     2  atoms
     1  bonds
     0  angles
     0  dihedrals
     0  impropers

     2  atom types
     1  bond types

  0.0 10.0 xlo xhi
  0.0 10.0 ylo yhi
  0.0 10.0 zlo zhi

Masses

    1 1
    2 1

Atoms

1 1 1 -1 -0.353553390593 -0.353553390593 0.0
2 1 2 1 0.353553390593 0.353553390593 0.0

Bonds

1 1 1 2

